# vtk DataFile Version 2.0
Particle simulation - Time: 62.800000 s
ASCII
DATASET UNSTRUCTURED_GRID
POINTS 1 float
1.93815232e-01 0.00000000e+00 -2.23360687e+00
CELLS 1 2
1 0
CELL_TYPES 1
1
POINT_DATA 1
VECTORS velocity float
2.81512753e-01 0.00000000e+00 7.23966542e-02
SCALARS kinetic_energy float 1
LOOKUP_TABLE default
1.42366839e-02
SCALARS speed float 1
LOOKUP_TABLE default
2.90672850e-01
SCALARS radius float 1
LOOKUP_TABLE default
1.03000000e-01
SCALARS mass float 1
LOOKUP_TABLE default
3.37000000e-01
