# vtk DataFile Version 2.0
Particle simulation - Time: 14.000000 s
ASCII
DATASET UNSTRUCTURED_GRID
POINTS 1 float
1.40451786e+00 0.00000000e+00 -9.87233849e-01
CELLS 1 2
1 0
CELL_TYPES 1
1
POINT_DATA 1
VECTORS velocity float
4.72555371e+00 0.00000000e+00 -5.18001491e-02
SCALARS kinetic_energy float 1
LOOKUP_TABLE default
3.76320167e+00
SCALARS speed float 1
LOOKUP_TABLE default
4.72583761e+00
SCALARS radius float 1
LOOKUP_TABLE default
1.03000000e-01
SCALARS mass float 1
LOOKUP_TABLE default
3.37000000e-01
