# vtk DataFile Version 2.0
Particle simulation - Time: 28.400000 s
ASCII
DATASET UNSTRUCTURED_GRID
POINTS 1 float
-3.03938285e-01 0.00000000e+00 -2.01099353e+00
CELLS 1 2
1 0
CELL_TYPES 1
1
POINT_DATA 1
VECTORS velocity float
-3.79426102e-01 0.00000000e+00 -6.79344268e-01
SCALARS kinetic_energy float 1
LOOKUP_TABLE default
1.02022167e-01
SCALARS speed float 1
LOOKUP_TABLE default
7.78121329e-01
SCALARS radius float 1
LOOKUP_TABLE default
1.03000000e-01
SCALARS mass float 1
LOOKUP_TABLE default
3.37000000e-01
