# vtk DataFile Version 2.0
Particle simulation - Time: 12.200000 s
ASCII
DATASET UNSTRUCTURED_GRID
POINTS 1 float
-7.19707477e-01 0.00000000e+00 -1.41162913e+00
CELLS 1 2
1 0
CELL_TYPES 1
1
POINT_DATA 1
VECTORS velocity float
-1.12574799e-01 0.00000000e+00 6.01741733e+00
SCALARS kinetic_energy float 1
LOOKUP_TABLE default
6.10340437e+00
SCALARS speed float 1
LOOKUP_TABLE default
6.01847027e+00
SCALARS radius float 1
LOOKUP_TABLE default
1.03000000e-01
SCALARS mass float 1
LOOKUP_TABLE default
3.37000000e-01
