# vtk DataFile Version 2.0
Particle simulation - Time: 72.000000 s
ASCII
DATASET UNSTRUCTURED_GRID
POINTS 1 float
-4.43272175e-01 0.00000000e+00 -2.19774288e+00
CELLS 1 2
1 0
CELL_TYPES 1
1
POINT_DATA 1
VECTORS velocity float
8.81898551e-02 0.00000000e+00 2.86962956e-02
SCALARS kinetic_energy float 1
LOOKUP_TABLE default
1.44925636e-03
SCALARS speed float 1
LOOKUP_TABLE default
9.27411879e-02
SCALARS radius float 1
LOOKUP_TABLE default
1.03000000e-01
SCALARS mass float 1
LOOKUP_TABLE default
3.37000000e-01
