# vtk DataFile Version 2.0
Particle simulation - Time: 70.700000 s
ASCII
DATASET UNSTRUCTURED_GRID
POINTS 1 float
-2.12608776e-01 0.00000000e+00 -2.23189639e+00
CELLS 1 2
1 0
CELL_TYPES 1
1
POINT_DATA 1
VECTORS velocity float
8.91213259e-02 0.00000000e+00 3.93191935e-02
SCALARS kinetic_energy float 1
LOOKUP_TABLE default
1.59883073e-03
SCALARS speed float 1
LOOKUP_TABLE default
9.74094949e-02
SCALARS radius float 1
LOOKUP_TABLE default
1.03000000e-01
SCALARS mass float 1
LOOKUP_TABLE default
3.37000000e-01
