# vtk DataFile Version 2.0
Particle simulation - Time: 58.300000 s
ASCII
DATASET UNSTRUCTURED_GRID
POINTS 1 float
-2.06514270e-01 0.00000000e+00 -2.23246856e+00
CELLS 1 2
1 0
CELL_TYPES 1
1
POINT_DATA 1
VECTORS velocity float
-2.87673072e-01 0.00000000e+00 7.45885322e-02
SCALARS kinetic_energy float 1
LOOKUP_TABLE default
1.48817929e-02
SCALARS speed float 1
LOOKUP_TABLE default
2.97185541e-01
SCALARS radius float 1
LOOKUP_TABLE default
1.03000000e-01
SCALARS mass float 1
LOOKUP_TABLE default
3.37000000e-01
