# vtk DataFile Version 2.0
Particle simulation - Time: 31.300000 s
ASCII
DATASET UNSTRUCTURED_GRID
POINTS 1 float
-3.00316106e-01 0.00000000e+00 -2.21342611e+00
CELLS 1 2
1 0
CELL_TYPES 1
1
POINT_DATA 1
VECTORS velocity float
-4.32064105e-01 0.00000000e+00 -8.40217026e-01
SCALARS kinetic_energy float 1
LOOKUP_TABLE default
1.50410521e-01
SCALARS speed float 1
LOOKUP_TABLE default
9.44798413e-01
SCALARS radius float 1
LOOKUP_TABLE default
1.03000000e-01
SCALARS mass float 1
LOOKUP_TABLE default
3.37000000e-01
