# vtk DataFile Version 2.0
Particle simulation - Time: 52.200000 s
ASCII
DATASET UNSTRUCTURED_GRID
POINTS 1 float
-1.90513954e-01 0.00000000e+00 -2.23389087e+00
CELLS 1 2
1 0
CELL_TYPES 1
1
POINT_DATA 1
VECTORS velocity float
-3.86965212e-01 0.00000000e+00 8.11266498e-02
SCALARS kinetic_energy float 1
LOOKUP_TABLE default
2.63405281e-02
SCALARS speed float 1
LOOKUP_TABLE default
3.95377805e-01
SCALARS radius float 1
LOOKUP_TABLE default
1.03000000e-01
SCALARS mass float 1
LOOKUP_TABLE default
3.37000000e-01
