# vtk DataFile Version 2.0
Particle simulation - Time: 23.300000 s
ASCII
DATASET UNSTRUCTURED_GRID
POINTS 1 float
-3.54212715e-01 0.00000000e+00 -2.10634661e+00
CELLS 1 2
1 0
CELL_TYPES 1
1
POINT_DATA 1
VECTORS velocity float
9.28625035e-01 0.00000000e+00 3.33050302e+00
SCALARS kinetic_energy float 1
LOOKUP_TABLE default
2.01434922e+00
SCALARS speed float 1
LOOKUP_TABLE default
3.45754173e+00
SCALARS radius float 1
LOOKUP_TABLE default
1.03000000e-01
SCALARS mass float 1
LOOKUP_TABLE default
3.37000000e-01
