# vtk DataFile Version 2.0
Particle simulation - Time: 58.600000 s
ASCII
DATASET UNSTRUCTURED_GRID
POINTS 1 float
-2.47855913e-01 0.00000000e+00 -2.22825749e+00
CELLS 1 2
1 0
CELL_TYPES 1
1
POINT_DATA 1
VECTORS velocity float
2.02392622e-02 0.00000000e+00 4.55416274e-02
SCALARS kinetic_energy float 1
LOOKUP_TABLE default
4.18497984e-04
SCALARS speed float 1
LOOKUP_TABLE default
4.98364080e-02
SCALARS radius float 1
LOOKUP_TABLE default
1.03000000e-01
SCALARS mass float 1
LOOKUP_TABLE default
3.37000000e-01
