# vtk DataFile Version 2.0
Particle simulation - Time: 62.900000 s
ASCII
DATASET UNSTRUCTURED_GRID
POINTS 1 float
2.17504027e-01 0.00000000e+00 -2.23142466e+00
CELLS 1 2
1 0
CELL_TYPES 1
1
POINT_DATA 1
VECTORS velocity float
1.90840029e-01 0.00000000e+00 6.64763685e-02
SCALARS kinetic_energy float 1
LOOKUP_TABLE default
6.88137557e-03
SCALARS speed float 1
LOOKUP_TABLE default
2.02086675e-01
SCALARS radius float 1
LOOKUP_TABLE default
1.03000000e-01
SCALARS mass float 1
LOOKUP_TABLE default
3.37000000e-01
