# vtk DataFile Version 2.0
Particle simulation - Time: 44.100000 s
ASCII
DATASET UNSTRUCTURED_GRID
POINTS 1 float
-1.19858032e-01 0.00000000e+00 -2.23879388e+00
CELLS 1 2
1 0
CELL_TYPES 1
1
POINT_DATA 1
VECTORS velocity float
5.57810882e-01 0.00000000e+00 1.86045934e-02
SCALARS kinetic_energy float 1
LOOKUP_TABLE default
5.24876002e-02
SCALARS speed float 1
LOOKUP_TABLE default
5.58121054e-01
SCALARS radius float 1
LOOKUP_TABLE default
1.03000000e-01
SCALARS mass float 1
LOOKUP_TABLE default
3.37000000e-01
