# vtk DataFile Version 2.0
Particle simulation - Time: 16.300000 s
ASCII
DATASET UNSTRUCTURED_GRID
POINTS 1 float
5.19990153e-01 0.00000000e+00 -1.39387840e+00
CELLS 1 2
1 0
CELL_TYPES 1
1
POINT_DATA 1
VECTORS velocity float
-3.91378048e+00 0.00000000e+00 2.21025097e+00
SCALARS kinetic_energy float 1
LOOKUP_TABLE default
3.40418646e+00
SCALARS speed float 1
LOOKUP_TABLE default
4.49476217e+00
SCALARS radius float 1
LOOKUP_TABLE default
1.03000000e-01
SCALARS mass float 1
LOOKUP_TABLE default
3.37000000e-01
