# vtk DataFile Version 2.0
Particle simulation - Time: 43.100000 s
ASCII
DATASET UNSTRUCTURED_GRID
POINTS 1 float
-1.73976760e-01 0.00000000e+00 -2.23523960e+00
CELLS 1 2
1 0
CELL_TYPES 1
1
POINT_DATA 1
VECTORS velocity float
-4.95893180e-01 0.00000000e+00 8.69330315e-02
SCALARS kinetic_energy float 1
LOOKUP_TABLE default
4.27092565e-02
SCALARS speed float 1
LOOKUP_TABLE default
5.03455457e-01
SCALARS radius float 1
LOOKUP_TABLE default
1.03000000e-01
SCALARS mass float 1
LOOKUP_TABLE default
3.37000000e-01
