# vtk DataFile Version 2.0
Particle simulation - Time: 2.000000 s
ASCII
DATASET UNSTRUCTURED_GRID
POINTS 1 float
-8.61798764e-01 0.00000000e+00 4.47058104e-01
CELLS 1 2
1 0
CELL_TYPES 1
1
POINT_DATA 1
VECTORS velocity float
2.68946311e+00 0.00000000e+00 -2.94845751e+00
SCALARS kinetic_energy float 1
LOOKUP_TABLE default
2.68363437e+00
SCALARS speed float 1
LOOKUP_TABLE default
3.99081614e+00
SCALARS radius float 1
LOOKUP_TABLE default
1.03000000e-01
SCALARS mass float 1
LOOKUP_TABLE default
3.37000000e-01
