# vtk DataFile Version 2.0
Particle simulation - Time: 91.100000 s
ASCII
DATASET UNSTRUCTURED_GRID
POINTS 1 float
-7.23051784e-02 0.00000000e+00 -2.24083376e+00
CELLS 1 2
1 0
CELL_TYPES 1
1
POINT_DATA 1
VECTORS velocity float
-3.26806777e-01 0.00000000e+00 5.85710359e-02
SCALARS kinetic_energy float 1
LOOKUP_TABLE default
1.85743002e-02
SCALARS speed float 1
LOOKUP_TABLE default
3.32013909e-01
SCALARS radius float 1
LOOKUP_TABLE default
1.03000000e-01
SCALARS mass float 1
LOOKUP_TABLE default
3.37000000e-01
