# vtk DataFile Version 2.0
Particle simulation - Time: 77.000000 s
ASCII
DATASET UNSTRUCTURED_GRID
POINTS 1 float
1.91589038e-01 0.00000000e+00 -2.23379893e+00
CELLS 1 2
1 0
CELL_TYPES 1
1
POINT_DATA 1
VECTORS velocity float
-7.86539541e-01 0.00000000e+00 -1.96778479e-02
SCALARS kinetic_energy float 1
LOOKUP_TABLE default
1.04306836e-01
SCALARS speed float 1
LOOKUP_TABLE default
7.86785655e-01
SCALARS radius float 1
LOOKUP_TABLE default
1.03000000e-01
SCALARS mass float 1
LOOKUP_TABLE default
3.37000000e-01
