# vtk DataFile Version 2.0
Particle simulation - Time: 60.900000 s
ASCII
DATASET UNSTRUCTURED_GRID
POINTS 1 float
-3.11623947e-02 0.00000000e+00 -2.24178342e+00
CELLS 1 2
1 0
CELL_TYPES 1
1
POINT_DATA 1
VECTORS velocity float
-5.01737371e-01 0.00000000e+00 5.53148374e-02
SCALARS kinetic_energy float 1
LOOKUP_TABLE default
4.29338203e-02
SCALARS speed float 1
LOOKUP_TABLE default
5.04777298e-01
SCALARS radius float 1
LOOKUP_TABLE default
1.03000000e-01
SCALARS mass float 1
LOOKUP_TABLE default
3.37000000e-01
