# vtk DataFile Version 2.0
Particle simulation - Time: 83.300000 s
ASCII
DATASET UNSTRUCTURED_GRID
POINTS 1 float
-3.15497630e-02 0.00000000e+00 -2.24177800e+00
CELLS 1 2
1 0
CELL_TYPES 1
1
POINT_DATA 1
VECTORS velocity float
3.88691672e-01 0.00000000e+00 4.26498596e-02
SCALARS kinetic_energy float 1
LOOKUP_TABLE default
2.57636881e-02
SCALARS speed float 1
LOOKUP_TABLE default
3.91024585e-01
SCALARS radius float 1
LOOKUP_TABLE default
1.03000000e-01
SCALARS mass float 1
LOOKUP_TABLE default
3.37000000e-01
