# vtk DataFile Version 2.0
Particle simulation - Time: 76.000000 s
ASCII
DATASET UNSTRUCTURED_GRID
POINTS 1 float
2.35757010e-01 0.00000000e+00 -2.22957006e+00
CELLS 1 2
1 0
CELL_TYPES 1
1
POINT_DATA 1
VECTORS velocity float
7.38283315e-01 0.00000000e+00 1.25715243e-01
SCALARS kinetic_energy float 1
LOOKUP_TABLE default
9.45060180e-02
SCALARS speed float 1
LOOKUP_TABLE default
7.48910259e-01
SCALARS radius float 1
LOOKUP_TABLE default
1.03000000e-01
SCALARS mass float 1
LOOKUP_TABLE default
3.37000000e-01
