# vtk DataFile Version 2.0
Particle simulation - Time: 66.800000 s
ASCII
DATASET UNSTRUCTURED_GRID
POINTS 1 float
2.37437916e-02 0.00000000e+00 -2.24187427e+00
CELLS 1 2
1 0
CELL_TYPES 1
1
POINT_DATA 1
VECTORS velocity float
-4.71581663e-01 0.00000000e+00 4.32805875e-02
SCALARS kinetic_energy float 1
LOOKUP_TABLE default
3.77882269e-02
SCALARS speed float 1
LOOKUP_TABLE default
4.73563590e-01
SCALARS radius float 1
LOOKUP_TABLE default
1.03000000e-01
SCALARS mass float 1
LOOKUP_TABLE default
3.37000000e-01
