# vtk DataFile Version 2.0
Particle simulation - Time: 63.000000 s
ASCII
DATASET UNSTRUCTURED_GRID
POINTS 1 float
2.31697205e-01 0.00000000e+00 -2.22999561e+00
CELLS 1 2
1 0
CELL_TYPES 1
1
POINT_DATA 1
VECTORS velocity float
9.23117218e-02 0.00000000e+00 5.74033413e-02
SCALARS kinetic_energy float 1
LOOKUP_TABLE default
1.99109669e-03
SCALARS speed float 1
LOOKUP_TABLE default
1.08704175e-01
SCALARS radius float 1
LOOKUP_TABLE default
1.03000000e-01
SCALARS mass float 1
LOOKUP_TABLE default
3.37000000e-01
