# vtk DataFile Version 2.0
Particle simulation - Time: 44.000000 s
ASCII
DATASET UNSTRUCTURED_GRID
POINTS 1 float
9.28445443e-02 0.00000000e+00 -2.24007676e+00
CELLS 1 2
1 0
CELL_TYPES 1
1
POINT_DATA 1
VECTORS velocity float
-1.27421443e+00 0.00000000e+00 -2.91093850e-03
SCALARS kinetic_energy float 1
LOOKUP_TABLE default
2.73581806e-01
SCALARS speed float 1
LOOKUP_TABLE default
1.27421776e+00
SCALARS radius float 1
LOOKUP_TABLE default
1.03000000e-01
SCALARS mass float 1
LOOKUP_TABLE default
3.37000000e-01
