# vtk DataFile Version 2.0
Particle simulation - Time: 51.400000 s
ASCII
DATASET UNSTRUCTURED_GRID
POINTS 1 float
2.06713157e-01 0.00000000e+00 -2.23245015e+00
CELLS 1 2
1 0
CELL_TYPES 1
1
POINT_DATA 1
VECTORS velocity float
-3.60971767e-01 0.00000000e+00 1.46512832e-02
SCALARS kinetic_energy float 1
LOOKUP_TABLE default
2.19918242e-02
SCALARS speed float 1
LOOKUP_TABLE default
3.61268981e-01
SCALARS radius float 1
LOOKUP_TABLE default
1.03000000e-01
SCALARS mass float 1
LOOKUP_TABLE default
3.37000000e-01
