# vtk DataFile Version 2.0
Particle simulation - Time: 48.800000 s
ASCII
DATASET UNSTRUCTURED_GRID
POINTS 1 float
7.29938493e-03 0.00000000e+00 -2.24198812e+00
CELLS 1 2
1 0
CELL_TYPES 1
1
POINT_DATA 1
VECTORS velocity float
-5.79684313e-01 0.00000000e+00 4.66350635e-02
SCALARS kinetic_energy float 1
LOOKUP_TABLE default
5.69881713e-02
SCALARS speed float 1
LOOKUP_TABLE default
5.81557161e-01
SCALARS radius float 1
LOOKUP_TABLE default
1.03000000e-01
SCALARS mass float 1
LOOKUP_TABLE default
3.37000000e-01
