# vtk DataFile Version 2.0
Particle simulation - Time: 30.700000 s
ASCII
DATASET UNSTRUCTURED_GRID
POINTS 1 float
5.43191874e-02 0.00000000e+00 -2.17444978e+00
CELLS 1 2
1 0
CELL_TYPES 1
1
POINT_DATA 1
VECTORS velocity float
-7.13779040e-01 0.00000000e+00 4.66397900e-01
SCALARS kinetic_energy float 1
LOOKUP_TABLE default
1.22500767e-01
SCALARS speed float 1
LOOKUP_TABLE default
8.52647359e-01
SCALARS radius float 1
LOOKUP_TABLE default
1.03000000e-01
SCALARS mass float 1
LOOKUP_TABLE default
3.37000000e-01
