# vtk DataFile Version 2.0
Particle simulation - Time: 38.200000 s
ASCII
DATASET UNSTRUCTURED_GRID
POINTS 1 float
-5.68502481e-02 0.00000000e+00 -2.24127911e+00
CELLS 1 2
1 0
CELL_TYPES 1
1
POINT_DATA 1
VECTORS velocity float
6.42337148e-01 0.00000000e+00 3.23950449e-02
SCALARS kinetic_energy float 1
LOOKUP_TABLE default
6.96994269e-02
SCALARS speed float 1
LOOKUP_TABLE default
6.43153520e-01
SCALARS radius float 1
LOOKUP_TABLE default
1.03000000e-01
SCALARS mass float 1
LOOKUP_TABLE default
3.37000000e-01
