# vtk DataFile Version 2.0
Particle simulation - Time: 28.300000 s
ASCII
DATASET UNSTRUCTURED_GRID
POINTS 1 float
-2.65995674e-01 0.00000000e+00 -1.98720410e+00
CELLS 1 2
1 0
CELL_TYPES 1
1
POINT_DATA 1
VECTORS velocity float
-3.79426102e-01 0.00000000e+00 3.01655732e-01
SCALARS kinetic_energy float 1
LOOKUP_TABLE default
3.95908186e-02
SCALARS speed float 1
LOOKUP_TABLE default
4.84727086e-01
SCALARS radius float 1
LOOKUP_TABLE default
1.03000000e-01
SCALARS mass float 1
LOOKUP_TABLE default
3.37000000e-01
