# vtk DataFile Version 2.0
Particle simulation - Time: 13.300000 s
ASCII
DATASET UNSTRUCTURED_GRID
POINTS 1 float
-8.43539756e-01 0.00000000e+00 -7.81475071e-01
CELLS 1 2
1 0
CELL_TYPES 1
1
POINT_DATA 1
VECTORS velocity float
-1.12574799e-01 0.00000000e+00 -4.77358267e+00
SCALARS kinetic_energy float 1
LOOKUP_TABLE default
3.84176034e+00
SCALARS speed float 1
LOOKUP_TABLE default
4.77490991e+00
SCALARS radius float 1
LOOKUP_TABLE default
1.03000000e-01
SCALARS mass float 1
LOOKUP_TABLE default
3.37000000e-01
