# vtk DataFile Version 2.0
Particle simulation - Time: 19.700000 s
ASCII
DATASET UNSTRUCTURED_GRID
POINTS 1 float
3.56901504e-01 0.00000000e+00 -1.74904510e+00
CELLS 1 2
1 0
CELL_TYPES 1
1
POINT_DATA 1
VECTORS velocity float
8.55334979e-01 0.00000000e+00 -3.97297202e+00
SCALARS kinetic_energy float 1
LOOKUP_TABLE default
2.78296362e+00
SCALARS speed float 1
LOOKUP_TABLE default
4.06400106e+00
SCALARS radius float 1
LOOKUP_TABLE default
1.03000000e-01
SCALARS mass float 1
LOOKUP_TABLE default
3.37000000e-01
