# vtk DataFile Version 2.0
Particle simulation - Time: 71.000000 s
ASCII
DATASET UNSTRUCTURED_GRID
POINTS 1 float
-1.47319509e-01 0.00000000e+00 -2.23715466e+00
CELLS 1 2
1 0
CELL_TYPES 1
1
POINT_DATA 1
VECTORS velocity float
3.31624665e-01 0.00000000e+00 2.61925145e-02
SCALARS kinetic_energy float 1
LOOKUP_TABLE default
1.86463728e-02
SCALARS speed float 1
LOOKUP_TABLE default
3.32657430e-01
SCALARS radius float 1
LOOKUP_TABLE default
1.03000000e-01
SCALARS mass float 1
LOOKUP_TABLE default
3.37000000e-01
