# vtk DataFile Version 2.0
Particle simulation - Time: 51.000000 s
ASCII
DATASET UNSTRUCTURED_GRID
POINTS 1 float
-5.41286868e-01 0.00000000e+00 -2.17567749e+00
CELLS 1 2
1 0
CELL_TYPES 1
1
POINT_DATA 1
VECTORS velocity float
3.34169069e-01 0.00000000e+00 -3.64210501e-02
SCALARS kinetic_energy float 1
LOOKUP_TABLE default
1.90397349e-02
SCALARS speed float 1
LOOKUP_TABLE default
3.36147973e-01
SCALARS radius float 1
LOOKUP_TABLE default
1.03000000e-01
SCALARS mass float 1
LOOKUP_TABLE default
3.37000000e-01
