# vtk DataFile Version 2.0
Particle simulation - Time: 93.300000 s
ASCII
DATASET UNSTRUCTURED_GRID
POINTS 1 float
1.59731413e-01 0.00000000e+00 -2.23630272e+00
CELLS 1 2
1 0
CELL_TYPES 1
1
POINT_DATA 1
VECTORS velocity float
-1.12129041e-01 0.00000000e+00 3.98099436e-02
SCALARS kinetic_energy float 1
LOOKUP_TABLE default
2.38558146e-03
SCALARS speed float 1
LOOKUP_TABLE default
1.18986358e-01
SCALARS radius float 1
LOOKUP_TABLE default
1.03000000e-01
SCALARS mass float 1
LOOKUP_TABLE default
3.37000000e-01
