# vtk DataFile Version 2.0
Particle simulation - Time: 77.100000 s
ASCII
DATASET UNSTRUCTURED_GRID
POINTS 1 float
-1.07950793e-01 0.00000000e+00 -2.23939961e+00
CELLS 1 2
1 0
CELL_TYPES 1
1
POINT_DATA 1
VECTORS velocity float
3.57569983e-01 0.00000000e+00 3.08324694e-02
SCALARS kinetic_energy float 1
LOOKUP_TABLE default
2.17039683e-02
SCALARS speed float 1
LOOKUP_TABLE default
3.58896829e-01
SCALARS radius float 1
LOOKUP_TABLE default
1.03000000e-01
SCALARS mass float 1
LOOKUP_TABLE default
3.37000000e-01
